Generated by Daniele Giofre, original comment line: 

  214 atoms
  3 atom types

  0.0000000000000000E+00   1.6227998580176077E+01 xlo xhi
  0.0000000000000000E+00   1.6227998580176077E+01 ylo yhi
  0.0000000000000000E+00   1.6227998580176077E+01 zlo zhi
  1 1 1 xy xz yz

Atoms

    1   1   0.0000000000000000E+00  -0.0000000000000000E+00   0.0000000000000000E+00
    2   1   2.0517724408324929E+00   2.0517724408324929E+00   0.0000000000000000E+00
    3   1   2.0517724408324929E+00   0.0000000000000000E+00   2.0517724408324929E+00
    4   1  -0.0000000000000000E+00   2.0517724408324929E+00   2.0517724408324929E+00
    5   1  -0.0000000000000000E+00   0.0000000000000000E+00   4.0595131044906339E+00
    6   1   2.0298020614852574E+00   2.0298020614852574E+00   4.0612482765576789E+00
    7   3   2.0284981688432326E+00   0.0000000000000000E+00   6.0867322520206466E+00
    8   3   0.0000000000000000E+00   2.0284981688432326E+00   6.0867322520206466E+00
    9   3   0.0000000000000000E+00  -0.0000000000000000E+00   8.1139995546766421E+00
   10   3   2.0284695932739676E+00   2.0284695932739676E+00   8.1139995546766421E+00
   11   3   2.0284981688432326E+00   0.0000000000000000E+00   1.0141266328155430E+01
   12   3  -0.0000000000000000E+00   2.0284981688432326E+00   1.0141266328155430E+01
   13   2   0.0000000000000000E+00   0.0000000000000000E+00   1.2168486004862652E+01
   14   2   2.0298020614852574E+00   2.0298020614852574E+00   1.2166750303618398E+01
   15   2   2.0517724408324929E+00  -0.0000000000000000E+00   1.4176226668520792E+01
   16   2   0.0000000000000000E+00   2.0517724408324929E+00   1.4176226668520792E+01
   17   2   0.0000000000000000E+00   4.0595131044906339E+00   0.0000000000000000E+00
   18   2   2.0284981688432326E+00   6.0867322520206466E+00   0.0000000000000000E+00
   19   2   2.0298020614852574E+00   4.0612482765576789E+00   2.0298020614852574E+00
   20   2  -0.0000000000000000E+00   6.0867322520206466E+00   2.0284981688432326E+00
   21   2   0.0000000000000000E+00   4.0586690668428940E+00   4.0586690668428940E+00
   22   2   2.0284156171986889E+00   6.0853939628600608E+00   4.0572625138223977E+00
   23   2   2.0284156171986889E+00   4.0572625138223977E+00   6.0853939628600608E+00
   24   2  -0.0000000000000000E+00   6.0855442491873077E+00   6.0855442491873077E+00
   25   2   0.0000000000000000E+00   4.0574175627445221E+00   8.1139995546766421E+00
   26   2   2.0285701369436042E+00   6.0855024441878278E+00   8.1139995546766421E+00
   27   2   2.0284156171986889E+00   4.0572625138223977E+00   1.0142604617316014E+01
   28   2  -0.0000000000000000E+00   6.0855442491873077E+00   1.0142454330988770E+01
   29   2   0.0000000000000000E+00   4.0586690668428940E+00   1.2169330042510392E+01
   30   2   2.0284156171986889E+00   6.0853939628600608E+00   1.2170736595530887E+01
   31   2   2.0298020614852574E+00   4.0612482765576789E+00   1.4198196518690819E+01
   32   2   0.0000000000000000E+00   6.0867322520206466E+00   1.4199500411332844E+01
   33   2   0.0000000000000000E+00   8.1139995546766421E+00   0.0000000000000000E+00
   34   2   2.0284981688432326E+00   1.0141266328155430E+01  -0.0000000000000000E+00
   35   2   2.0284695932739676E+00   8.1139995546766421E+00   2.0284695932739676E+00
   36   2   0.0000000000000000E+00   1.0141266328155430E+01   2.0284981688432326E+00
   37   2  -0.0000000000000000E+00   8.1139995546766421E+00   4.0574175627445221E+00
   38   2   2.0284156171986889E+00   1.0142604617316014E+01   4.0572625138223977E+00
   39   2   2.0285701369436042E+00   8.1139995546766421E+00   6.0855024441878278E+00
   40   2  -0.0000000000000000E+00   1.0142454330988770E+01   6.0855442491873077E+00
   41   2   0.0000000000000000E+00   8.1139995546766421E+00   8.1139995546766421E+00
   42   2   2.0285701369436042E+00   1.0142496135988250E+01   8.1139995546766421E+00
   43   2   2.0285701369436042E+00   8.1139995546766421E+00   1.0142496135988250E+01
   44   2   0.0000000000000000E+00   1.0142454330988770E+01   1.0142454330988770E+01
   45   2   0.0000000000000000E+00   8.1139995546766421E+00   1.2170581546608762E+01
   46   2   2.0284156171986889E+00   1.0142604617316014E+01   1.2170736595530887E+01
   47   2   2.0284695932739676E+00   8.1139995546766421E+00   1.4199528986902109E+01
   48   2  -0.0000000000000000E+00   1.0141266328155430E+01   1.4199500411332844E+01
   49   2   0.0000000000000000E+00   1.2168486004862652E+01   0.0000000000000000E+00
   50   2   2.0517724408324929E+00   1.4176226668520792E+01   0.0000000000000000E+00
   51   2   2.0298020614852574E+00   1.2166750303618398E+01   2.0298020614852574E+00
   52   2  -0.0000000000000000E+00   1.4176226668520792E+01   2.0517724408324929E+00
   53   2   0.0000000000000000E+00   1.2169330042510392E+01   4.0586690668428940E+00
   54   2   2.0298020614852574E+00   1.4198196518690819E+01   4.0612482765576789E+00
   55   2   2.0284156171986889E+00   1.2170736595530887E+01   6.0853939628600608E+00
   56   2   0.0000000000000000E+00   1.4199500411332844E+01   6.0867322520206466E+00
   57   2  -0.0000000000000000E+00   1.2170581546608762E+01   8.1139995546766421E+00
   58   2   2.0284695932739676E+00   1.4199528986902109E+01   8.1139995546766421E+00
   59   2   2.0284156171986889E+00   1.2170736595530887E+01   1.0142604617316014E+01
   60   2  -0.0000000000000000E+00   1.4199500411332844E+01   1.0141266328155430E+01
   61   2   0.0000000000000000E+00   1.2169330042510392E+01   1.2169330042510392E+01
   62   2   2.0298020614852574E+00   1.4198196518690819E+01   1.2166750303618398E+01
   63   2   2.0298020614852574E+00   1.2166750303618398E+01   1.4198196518690819E+01
   64   2   0.0000000000000000E+00   1.4176226668520792E+01   1.4176226668520792E+01
   65   2   4.0595131044906339E+00   0.0000000000000000E+00   0.0000000000000000E+00
   66   2   6.0867322520206466E+00   2.0284981688432326E+00   0.0000000000000000E+00
   67   2   6.0867322520206466E+00   0.0000000000000000E+00   2.0284981688432326E+00
   68   2   4.0612482765576789E+00   2.0298020614852574E+00   2.0298020614852574E+00
   69   2   4.0586690668428940E+00  -0.0000000000000000E+00   4.0586690668428940E+00
   70   2   6.0853939628600608E+00   2.0284156171986889E+00   4.0572625138223977E+00
   71   2   6.0855442491873077E+00  -0.0000000000000000E+00   6.0855442491873077E+00
   72   2   4.0572625138223977E+00   2.0284156171986889E+00   6.0853939628600608E+00
   73   2   4.0574175627445221E+00  -0.0000000000000000E+00   8.1139995546766421E+00
   74   2   6.0855024441878278E+00   2.0285701369436042E+00   8.1139995546766421E+00
   75   2   6.0855442491873077E+00  -0.0000000000000000E+00   1.0142454330988770E+01
   76   2   4.0572625138223977E+00   2.0284156171986889E+00   1.0142604617316014E+01
   77   2   4.0586690668428940E+00   0.0000000000000000E+00   1.2169330042510392E+01
   78   2   6.0853939628600608E+00   2.0284156171986889E+00   1.2170736595530887E+01
   79   2   6.0867322520206466E+00  -0.0000000000000000E+00   1.4199500411332844E+01
   80   2   4.0612482765576789E+00   2.0298020614852574E+00   1.4198196518690819E+01
   81   2   4.0586690668428940E+00   4.0586690668428940E+00   0.0000000000000000E+00
   82   2   6.0855442491873077E+00   6.0855442491873077E+00  -0.0000000000000000E+00
   83   2   6.0853939628600608E+00   4.0572625138223977E+00   2.0284156171986889E+00
   84   2   4.0572625138223977E+00   6.0853939628600608E+00   2.0284156171986889E+00
   85   2   4.0571323362290794E+00   4.0571323362290794E+00   4.0571323362290794E+00
   86   2   6.0853765000121767E+00   6.0853765000121767E+00   4.0568370553466728E+00
   87   2   6.0853765000121767E+00   4.0568370553466728E+00   6.0853765000121767E+00
   88   2   4.0568370553466728E+00   6.0853765000121767E+00   6.0853765000121767E+00
   89   2   4.0571397447099997E+00   4.0571397447099997E+00   8.1139995546766421E+00
   90   2   6.0856119838700105E+00   6.0856119838700105E+00   8.1139995546766421E+00
   91   2   6.0853765000121767E+00   4.0568370553466728E+00   1.0142622080163900E+01
   92   2   4.0568370553466728E+00   6.0853765000121767E+00   1.0142622080163900E+01
   93   2   4.0571323362290794E+00   4.0571323362290794E+00   1.2170866243946998E+01
   94   2   6.0853765000121767E+00   6.0853765000121767E+00   1.2171162054006613E+01
   95   2   6.0853939628600608E+00   4.0572625138223977E+00   1.4199582962977388E+01
   96   2   4.0572625138223977E+00   6.0853939628600608E+00   1.4199582962977388E+01
   97   2   4.0574175627445221E+00   8.1139995546766421E+00   0.0000000000000000E+00
   98   2   6.0855442491873077E+00   1.0142454330988770E+01   0.0000000000000000E+00
   99   2   6.0855024441878278E+00   8.1139995546766421E+00   2.0285701369436042E+00
  100   2   4.0572625138223977E+00   1.0142604617316014E+01   2.0284156171986889E+00
  101   2   4.0571397447099997E+00   8.1139995546766421E+00   4.0571397447099997E+00
  102   2   6.0853765000121767E+00   1.0142622080163900E+01   4.0568370553466728E+00
  103   2   6.0856119838700105E+00   8.1139995546766421E+00   6.0856119838700105E+00
  104   2   4.0568370553466728E+00   1.0142622080163900E+01   6.0853765000121767E+00
  105   2   4.0572074793927024E+00   8.1139995546766421E+00   8.1139995546766421E+00
  106   2   6.0856119838700105E+00   1.0142387125483275E+01   8.1139995546766421E+00
  107   2   6.0856119838700105E+00   8.1139995546766421E+00   1.0142387125483275E+01
  108   2   4.0568370553466728E+00   1.0142622080163900E+01   1.0142622080163900E+01
  109   2   4.0571397447099997E+00   8.1139995546766421E+00   1.2170858835466078E+01
  110   2   6.0853765000121767E+00   1.0142622080163900E+01   1.2171162054006613E+01
  111   2   6.0855024441878278E+00   8.1139995546766421E+00   1.4199428972409681E+01
  112   2   4.0572625138223977E+00   1.0142604617316014E+01   1.4199582962977388E+01
  113   2   4.0586690668428940E+00   1.2169330042510392E+01   0.0000000000000000E+00
  114   2   6.0867322520206466E+00   1.4199500411332844E+01  -0.0000000000000000E+00
  115   2   6.0853939628600608E+00   1.2170736595530887E+01   2.0284156171986889E+00
  116   2   4.0612482765576789E+00   1.4198196518690819E+01   2.0298020614852574E+00
  117   2   4.0571323362290794E+00   1.2170866243946998E+01   4.0571323362290794E+00
  118   2   6.0853939628600608E+00   1.4199582962977388E+01   4.0572625138223977E+00
  119   2   6.0853765000121767E+00   1.2171162054006613E+01   6.0853765000121767E+00
  120   2   4.0572625138223977E+00   1.4199582962977388E+01   6.0853939628600608E+00
  121   2   4.0571397447099997E+00   1.2170858835466078E+01   8.1139995546766421E+00
  122   2   6.0855024441878278E+00   1.4199428972409681E+01   8.1139995546766421E+00
  123   2   6.0853765000121767E+00   1.2171162054006613E+01   1.0142622080163900E+01
  124   2   4.0572625138223977E+00   1.4199582962977388E+01   1.0142604617316014E+01
  125   2   4.0571323362290794E+00   1.2170866243946998E+01   1.2170866243946998E+01
  126   2   6.0853939628600608E+00   1.4199582962977388E+01   1.2170736595530887E+01
  127   2   6.0853939628600608E+00   1.2170736595530887E+01   1.4199582962977388E+01
  128   2   4.0612482765576789E+00   1.4198196518690819E+01   1.4198196518690819E+01
  129   2   8.1139995546766421E+00   0.0000000000000000E+00  -0.0000000000000000E+00
  130   2   1.0141266328155430E+01   2.0284981688432326E+00   0.0000000000000000E+00
  131   2   1.0141266328155430E+01   0.0000000000000000E+00   2.0284981688432326E+00
  132   2   8.1139995546766421E+00   2.0284695932739676E+00   2.0284695932739676E+00
  133   2   8.1139995546766421E+00  -0.0000000000000000E+00   4.0574175627445221E+00
  134   2   1.0142604617316014E+01   2.0284156171986889E+00   4.0572625138223977E+00
  135   2   1.0142454330988770E+01  -0.0000000000000000E+00   6.0855442491873077E+00
  136   2   8.1139995546766421E+00   2.0285701369436042E+00   6.0855024441878278E+00
  137   2   8.1139995546766421E+00   0.0000000000000000E+00   8.1139995546766421E+00
  138   2   1.0142496135988250E+01   2.0285701369436042E+00   8.1139995546766421E+00
  139   2   1.0142454330988770E+01  -0.0000000000000000E+00   1.0142454330988770E+01
  140   2   8.1139995546766421E+00   2.0285701369436042E+00   1.0142496135988250E+01
  141   2   8.1139995546766421E+00  -0.0000000000000000E+00   1.2170581546608762E+01
  142   2   1.0142604617316014E+01   2.0284156171986889E+00   1.2170736595530887E+01
  143   2   1.0141266328155430E+01   0.0000000000000000E+00   1.4199500411332844E+01
  144   2   8.1139995546766421E+00   2.0284695932739676E+00   1.4199528986902109E+01
  145   2   8.1139995546766421E+00   4.0574175627445221E+00  -0.0000000000000000E+00
  146   2   1.0142454330988770E+01   6.0855442491873077E+00   0.0000000000000000E+00
  147   2   1.0142604617316014E+01   4.0572625138223977E+00   2.0284156171986889E+00
  148   2   8.1139995546766421E+00   6.0855024441878278E+00   2.0285701369436042E+00
  149   2   8.1139995546766421E+00   4.0571397447099997E+00   4.0571397447099997E+00
  150   2   1.0142622080163900E+01   6.0853765000121767E+00   4.0568370553466728E+00
  151   2   1.0142622080163900E+01   4.0568370553466728E+00   6.0853765000121767E+00
  152   2   8.1139995546766421E+00   6.0856119838700105E+00   6.0856119838700105E+00
  153   2   8.1139995546766421E+00   4.0572074793927024E+00   8.1139995546766421E+00
  154   2   1.0142387125483275E+01   6.0856119838700105E+00   8.1139995546766421E+00
  155   2   1.0142622080163900E+01   4.0568370553466728E+00   1.0142622080163900E+01
  156   2   8.1139995546766421E+00   6.0856119838700105E+00   1.0142387125483275E+01
  157   2   8.1139995546766421E+00   4.0571397447099997E+00   1.2170858835466078E+01
  158   2   1.0142622080163900E+01   6.0853765000121767E+00   1.2171162054006613E+01
  159   2   1.0142604617316014E+01   4.0572625138223977E+00   1.4199582962977388E+01
  160   2   8.1139995546766421E+00   6.0855024441878278E+00   1.4199428972409681E+01
  161   2   8.1139995546766421E+00   8.1139995546766421E+00  -0.0000000000000000E+00
  162   2   1.0142454330988770E+01   1.0142454330988770E+01  -0.0000000000000000E+00
  163   2   1.0142496135988250E+01   8.1139995546766421E+00   2.0285701369436042E+00
  164   2   8.1139995546766421E+00   1.0142496135988250E+01   2.0285701369436042E+00
  165   2   8.1139995546766421E+00   8.1139995546766421E+00   4.0572074793927024E+00
  166   2   1.0142622080163900E+01   1.0142622080163900E+01   4.0568370553466728E+00
  167   2   1.0142387125483275E+01   8.1139995546766421E+00   6.0856119838700105E+00
  168   2   8.1139995546766421E+00   1.0142387125483275E+01   6.0856119838700105E+00
  169   2   8.1139995546766421E+00   8.1139995546766421E+00   8.1139995546766421E+00
  170   2   1.0142387125483275E+01   1.0142387125483275E+01   8.1139995546766421E+00
  171   2   1.0142387125483275E+01   8.1139995546766421E+00   1.0142387125483275E+01
  172   2   8.1139995546766421E+00   1.0142387125483275E+01   1.0142387125483275E+01
  173   2   8.1139995546766421E+00   8.1139995546766421E+00   1.2170791629960583E+01
  174   2   1.0142622080163900E+01   1.0142622080163900E+01   1.2171162054006613E+01
  175   2   1.0142496135988250E+01   8.1139995546766421E+00   1.4199428972409681E+01
  176   2   8.1139995546766421E+00   1.0142496135988250E+01   1.4199428972409681E+01
  177   2   8.1139995546766421E+00   1.2170581546608762E+01  -0.0000000000000000E+00
  178   2   1.0141266328155430E+01   1.4199500411332844E+01  -0.0000000000000000E+00
  179   2   1.0142604617316014E+01   1.2170736595530887E+01   2.0284156171986889E+00
  180   2   8.1139995546766421E+00   1.4199528986902109E+01   2.0284695932739676E+00
  181   2   8.1139995546766421E+00   1.2170858835466078E+01   4.0571397447099997E+00
  182   2   1.0142604617316014E+01   1.4199582962977388E+01   4.0572625138223977E+00
  183   2   1.0142622080163900E+01   1.2171162054006613E+01   6.0853765000121767E+00
  184   2   8.1139995546766421E+00   1.4199428972409681E+01   6.0855024441878278E+00
  185   2   8.1139995546766421E+00   1.2170791629960583E+01   8.1139995546766421E+00
  186   2   1.0142496135988250E+01   1.4199428972409681E+01   8.1139995546766421E+00
  187   2   1.0142622080163900E+01   1.2171162054006613E+01   1.0142622080163900E+01
  188   2   8.1139995546766421E+00   1.4199428972409681E+01   1.0142496135988250E+01
  189   2   8.1139995546766421E+00   1.2170858835466078E+01   1.2170858835466078E+01
  190   2   1.0142604617316014E+01   1.4199582962977388E+01   1.2170736595530887E+01
  191   2   1.0142604617316014E+01   1.2170736595530887E+01   1.4199582962977388E+01
  192   2   8.1139995546766421E+00   1.4199528986902109E+01   1.4199528986902109E+01
  193   2   1.2168486004862652E+01  -0.0000000000000000E+00  -0.0000000000000000E+00
  194   2   1.4176226668520792E+01   2.0517724408324929E+00   0.0000000000000000E+00
  195   2   1.4176226668520792E+01  -0.0000000000000000E+00   2.0517724408324929E+00
  196   2   1.2166750303618398E+01   2.0298020614852574E+00   2.0298020614852574E+00
  197   2   1.2169330042510392E+01  -0.0000000000000000E+00   4.0586690668428940E+00
  198   2   1.4198196518690819E+01   2.0298020614852574E+00   4.0612482765576789E+00
  199   2   1.4199500411332844E+01   0.0000000000000000E+00   6.0867322520206466E+00
  200   2   1.2170736595530887E+01   2.0284156171986889E+00   6.0853939628600608E+00
  201   2   1.2170581546608762E+01   0.0000000000000000E+00   8.1139995546766421E+00
  202   2   1.4199528986902109E+01   2.0284695932739676E+00   8.1139995546766421E+00
  203   2   1.4199500411332844E+01  -0.0000000000000000E+00   1.0141266328155430E+01
  204   2   1.2170736595530887E+01   2.0284156171986889E+00   1.0142604617316014E+01
  205   2   1.2169330042510392E+01   0.0000000000000000E+00   1.2169330042510392E+01
  206   2   1.4198196518690819E+01   2.0298020614852574E+00   1.2166750303618398E+01
  207   2   1.4176226668520792E+01   0.0000000000000000E+00   1.4176226668520792E+01
  208   2   1.2166750303618398E+01   2.0298020614852574E+00   1.4198196518690819E+01
  209   2   1.2169330042510392E+01   4.0586690668428940E+00  -0.0000000000000000E+00
  210   2   1.4199500411332844E+01   6.0867322520206466E+00   0.0000000000000000E+00
  211   2   1.4198196518690819E+01   4.0612482765576789E+00   2.0298020614852574E+00
  212   2   1.2170736595530887E+01   6.0853939628600608E+00   2.0284156171986889E+00
  213   2    1.4198196518690819E+01   4.0612482765576789E+00   4.0298020614852574E+00
  214   2  1.2170736595530887E+01   6.0853939628600608E+00   4.0284156171986889E+00
