214
# CELL(abcABC):   17.22512    17.22512    17.22512    60.00000    60.00000    60.00000  Step:           4  Bead:       0 positions{angstrom}  cell{angstrom}
      Si  1.43589e+01  1.15946e+01  1.17207e+01
      Si  1.86871e+01  2.53165e+00  7.03056e+00
      Si  1.57837e+01  5.79823e+00  9.36229e+00
      Si  1.29179e+01  1.24373e+01  7.03344e+00
      Si  1.72963e+01  6.55333e+00  1.18555e+01
      Si  9.96617e+00  8.98650e-01  2.21407e+00
      Mg  1.86381e+01  4.16169e+00  1.17378e+01
      Mg  2.01010e+01  4.97069e+00  7.02882e+00
      Mg  1.00349e+01  2.46907e+00 -1.16950e-02
      Mg  8.61687e+00  3.30810e+00  2.34601e+00
      Mg  2.15279e+01  1.40902e+01  4.68833e+00
      Mg  1.57946e+01  5.79306e+00  2.34430e+00
      Al  4.31933e+00  2.50872e+00  7.02717e+00
      Al  8.60825e+00  1.15955e+01  4.69155e+00
      Al  4.28318e+00  4.15457e+00  4.72275e+00
      Al  1.43604e+01  1.32554e+01  2.33545e+00
      Al  7.18632e+00  5.78073e+00  2.34820e+00
      Al  1.57832e+01  2.47748e+00 -2.00043e-03
      Al  1.43538e+01  1.51852e-03 -5.56419e-03
      Al  1.58090e+01  1.24366e+01  7.02665e+00
      Al  1.29112e+01  1.57389e+01  9.35417e+00
      Al  1.43531e+01  1.65793e+01  1.17144e+01
      Al  1.29088e+01  9.10022e+00  1.17339e+01
      Al  1.57904e+01  1.07700e+01  2.34429e+00
      Al  7.18442e+00  4.13685e+00  4.66676e+00
      Al  2.58224e+01  1.49066e+01  7.04062e+00
      Al  2.00965e+01  1.65791e+01  1.17230e+01
      Al  8.61658e+00  8.28952e+00  2.34696e+00
      Al  4.29799e+00  7.45840e+00  1.36222e-02
      Al  2.29547e+01  1.16230e+01  4.68666e+00
      Al  1.00312e+01  1.24272e+01  7.02844e+00
      Al  1.58145e+01  4.11902e+00  1.17733e+01
      Al  1.14675e+01  3.33858e+00  2.32860e+00
      Al  2.44023e+01  1.40912e+01  1.17218e+01
      Al  1.14755e+01  9.92990e+00  7.02871e+00
      Al  2.15325e+01  1.57455e+01  9.37826e+00
      Al  1.72265e+01  1.15944e+01  4.68382e+00
      Al  1.86657e+01  7.43520e+00  7.03029e+00
      Al  7.21829e+00  2.45366e+00  5.82636e-02
      Al  2.86950e+01  1.65985e+01  1.17221e+01
      Al  1.29182e+01  9.12627e+00  4.69814e+00
      Al  8.59496e+00  1.67923e+00  4.70358e+00
      Al  1.00454e+01  2.48724e+00  7.04155e+00
      Al  2.29561e+01  1.49140e+01  7.00878e+00
      Al  2.00904e+01  9.95023e+00  1.01406e-02
      Al  2.15303e+01  1.07663e+01  2.33450e+00
      Al  1.72268e+01  1.49189e+01  7.04042e+00
      Al  5.75001e+00  6.63734e+00  4.68417e+00
      Al  1.43379e+01  4.96071e+00  7.01711e+00
      Al  1.43332e+01  1.64086e+00  4.69081e+00
      Al  2.88680e+00  4.98530e+00 -8.72700e-03
      Al  1.29655e+01  8.15490e-01  2.36610e+00
      Al  1.58030e+01  1.24611e+01  1.17554e-02
      Al  1.29013e+01  5.80080e+00  9.38134e+00
      Al  2.01035e+01  1.16078e+01  1.17264e+01
      Al  5.72144e+00  4.97534e+00  7.03355e+00
      Al  8.61109e+00  6.63373e+00  4.69221e+00
      Al  1.29081e+01  1.07623e+01  9.37540e+00
      Al  1.00366e+01  4.12704e+00  4.66199e+00
      Al  1.72326e+01  9.94434e+00  7.02233e+00
      Al  1.72245e+01  9.93922e+00  1.37721e-03
      Al  1.43607e+01  1.16015e+01  4.66740e+00
      Al  1.86371e+01  5.81171e+00  2.33704e+00
      Al  7.17518e+00  9.11141e+00  4.68840e+00
      Al  1.57885e+01  4.15638e+00  4.67555e+00
      Al  8.61022e+00  8.28759e+00  9.37380e+00
      Al  1.86773e+01  4.16331e+00  4.69121e+00
      Al  1.29017e+01  2.48538e+00  8.72794e-03
      Al  8.61745e+00  4.94697e+00 -1.55969e-03
      Al  2.15306e+01  1.40848e+01  1.17227e+01
      Al  2.58375e+01  1.16037e+01  1.17155e+01
      Al  2.29749e+01  6.63207e+00  1.17260e+01
      Al  8.64761e+00  1.33100e+01  2.34322e+00
      Al  2.00977e+01  8.29558e+00  9.38323e+00
      Al  1.57915e+01  7.44480e+00  1.92715e-02
      Al  1.72414e+01  4.98272e+00  7.00466e+00
      Al  7.18172e+00  7.45906e+00  7.02654e+00
      Al  2.15338e+01  5.79652e+00  9.35426e+00
      Al  2.72651e+01  1.40850e+01  1.17283e+01
      Al  1.43710e+00  2.45333e+00  4.34359e-02
      Al  1.86800e+01  1.40711e+01  4.71499e+00
      Al  1.14790e+01  3.31020e+00  9.37209e+00
      Al  2.84878e+00  3.26524e+00  2.33308e+00
      Al  1.14529e+01  1.33084e+01  2.33910e+00
      Al  5.73081e+00  4.96463e+00  8.93326e-03
      Al  1.14823e+01  6.62993e+00  1.17147e+01
      Al  8.60504e+00  9.94496e+00  7.03149e+00
      Al  1.14852e+01  9.94605e+00  2.17448e-03
      Al  1.86673e+01  1.07754e+01  9.37092e+00
      Al  7.17620e+00  4.14326e+00  1.17191e+01
      Al  1.72235e+01  3.30331e+00  9.41355e+00
      Al  1.15119e+01  1.64644e+00  4.71456e+00
      Al  2.43786e+01  1.40835e+01  4.68800e+00
      Al  1.29280e+01  7.44928e+00  7.03931e+00
      Al  2.29629e+01  8.28818e+00  9.38235e+00
      Al  1.43704e+01  4.97722e+00  2.00618e-02
      Al  7.17835e+00  5.80059e+00  9.37753e+00
      Al  7.16888e+00  1.24245e+01 -5.80332e-03
      Al  2.01054e+01  1.49100e+01  7.01536e+00
      Al  1.29125e+01  2.49336e+00  7.03328e+00
      Al  7.18375e+00  2.48725e+00  7.03806e+00
      Al  2.01227e+01  1.32352e+01  2.36142e+00
      Al  1.43674e+01  3.34138e+00  2.34425e+00
      Al  1.29167e+01  1.07739e+01  2.33985e+00
      Al  1.72307e+01  1.65801e+01  1.17251e+01
      Al  1.14776e+01  1.15935e+01  4.68131e+00
      Al  5.78904e+00 -3.48526e-03 -7.61575e-03
      Al  2.29679e+01  9.94245e+00  7.03306e+00
      Al  1.00577e+01  1.41336e+01  4.66168e+00
      Al  2.29499e+01  1.32633e+01  2.36279e+00
      Al  1.86641e+01  1.40904e+01  1.17209e+01
      Al  1.86629e+01  7.46519e+00 -3.12233e-03
      Al  1.29207e+01  1.24240e+01 -8.29451e-03
      Al  1.57892e+01  1.57577e+01  9.37602e+00
      Al  1.00458e+01  7.45584e+00  7.03152e+00
      Al  1.57951e+01  9.12007e+00  4.68863e+00
      Al  1.43120e+01  6.63548e+00  1.17344e+01
      Al  5.74217e+00  8.28813e+00  2.35323e+00
      Al  1.00400e+01  9.11565e+00  1.17218e+01
      Al  2.29653e+01  1.16029e+01  1.17170e+01
      Al  1.72122e+01  4.98518e+00  1.43221e-02
      Al  1.00573e+01  7.46366e+00  1.82498e-03
      Al  1.72465e+01  1.63374e+00  4.63149e+00
      Al  1.43682e+01  6.62289e+00  4.66741e+00
      Al  2.01045e+01  6.61387e+00  4.70687e+00
      Al  1.43654e+01  8.26875e+00  2.34231e+00
      Al  4.30007e+00  5.79991e+00  2.34810e+00
      Al  1.29437e+01  5.80478e+00  2.34153e+00
      Al  2.29590e+01  1.65587e+01  1.17169e+01
      Al  2.15322e+01  1.07704e+01  9.37740e+00
      Al  1.57992e+01  1.41005e+01  1.17252e+01
      Al  1.00446e+01  1.24270e+01 -9.60019e-04
      Al  1.72073e+01  1.32552e+01  2.31414e+00
      Al  5.75810e+00  3.32816e+00  2.35755e+00
      Al  8.61050e+00  3.31664e+00  9.37397e+00
      Al  1.29191e+01  4.14468e+00  4.69495e+00
      Al  1.14250e+01  7.78826e-03 -5.28861e-02
      Al  1.57818e+01  9.12136e+00  1.17067e+01
      Al  2.15373e+01  9.11817e+00  1.17209e+01
      Al  2.29686e+01  1.32587e+01  9.37796e+00
      Al  1.00376e+01  5.79339e+00  2.34526e+00
      Al  1.00425e+01  9.11219e+00  4.68344e+00
      Al  1.29297e+01  1.40992e+01  4.67366e+00
      Al  2.58323e+01  1.32584e+01  9.37907e+00
      Al  2.15262e+01  1.24420e+01  7.01346e+00
      Al  7.16857e+00  8.26672e-01  2.32458e+00
      Al  1.86566e+01  1.24268e+01  7.04191e+00
      Al  1.00525e+01  1.07739e+01  9.36875e+00
      Al  2.01200e+01  6.62788e+00  1.17287e+01
      Al  2.44101e+01  1.57472e+01  9.37116e+00
      Al  2.72691e+01  1.57275e+01  9.39377e+00
      Al  1.14820e+01  1.32603e+01  9.39757e+00
      Al  2.15346e+01  9.11515e+00  4.68420e+00
      Al  1.00426e+01  5.79981e+00  9.37535e+00
      Al  4.29935e+00  2.48975e+00  2.16893e-03
      Al  1.57865e+01  1.40866e+01  4.69248e+00
      Al  1.58561e+01  8.31637e-01  2.33233e+00
      Al  1.86635e+01  9.11895e+00  4.68864e+00
      Al  1.14812e+01  6.62830e+00  4.68883e+00
      Al  1.72360e+01  1.16067e+01  1.17175e+01
      Al  2.85273e+00  1.62797e+00  4.61219e+00
      Al  1.86620e+01  1.57459e+01  9.37769e+00
      Al  1.29155e+01  4.14669e+00  1.17108e+01
      Al  1.14815e+01  4.96509e+00  7.02256e+00
      Al  2.01035e+01  1.16184e+01  4.68821e+00
      Al  1.14789e+01  8.28584e+00  2.34453e+00
      Al  8.60698e+00  6.63365e+00  1.17168e+01
      Al  1.86859e+01  9.13432e+00  1.17320e+01
      Al  5.76140e+00  3.31000e+00  9.38279e+00
      Al  2.00943e+01  1.32593e+01  9.38008e+00
      Al  2.44061e+01  1.24261e+01  7.03603e+00
      Al  1.72237e+01  1.32598e+01  9.38332e+00
      Al  1.29143e+01  1.41046e+01  1.17223e+01
      Al  1.14723e+01  4.95699e+00 -8.48075e-03
      Al  1.00479e+01  4.13975e+00  1.17130e+01
      Al  1.00444e+01  1.07640e+01  2.33952e+00
      Al  2.15486e+01  1.24187e+01  1.58759e-03
      Al  1.57887e+01  7.47446e+00  7.01775e+00
      Al  5.73903e+00  9.93720e+00 -5.51325e-03
      Al  2.84847e+00  1.69848e-02  4.36869e-02
      Al  2.44032e+01  1.07754e+01  9.37316e+00
      Al  1.72154e+01  8.26508e+00  2.34548e+00
      Al  1.14638e+01  1.16045e+01  1.17274e+01
      Al  1.14753e+01  8.28184e+00  9.37590e+00
      Al  7.18122e+00  1.07710e+01  2.34225e+00
      Al  8.61120e+00  4.97415e+00  7.03257e+00
      Al  5.74610e+00  1.65561e+00  4.69038e+00
      Al  2.15197e+01  4.14187e+00  1.17197e+01
      Al  1.57701e+01  2.49634e+00  7.03704e+00
      Al  1.86347e+01  1.24964e+01 -7.66639e-03
      Al  1.72038e+01  6.63170e+00  4.65143e+00
      Al  2.64467e-02  2.02008e-02  5.13124e-02
      Al  1.72323e+01  8.31254e+00  9.35978e+00
      Al  1.43647e+01  1.49340e+01  7.02169e+00
      Al  2.58489e+01  1.65869e+01  1.17260e+01
      Al  1.57918e+01  1.07789e+01  9.35911e+00
      Al  2.01052e+01  3.33636e+00  9.39456e+00
      Al  1.14847e+01  1.49091e+01  7.04197e+00
      Al  1.72335e+01  3.28764e+00  2.34173e+00
      Al  1.43613e+01  9.93322e+00  7.02253e+00
      Al  2.00968e+01  8.29273e+00  2.34872e+00
      Al  1.43614e+01  1.32762e+01  9.37665e+00
      Al  2.44005e+01  9.11149e+00  1.17217e+01
      Al  7.18240e+00  7.46324e+00  1.05804e-02
      Al  1.29107e+01  7.45967e+00 -5.09628e-03
      Al  1.87045e+01  5.77716e+00  9.34198e+00
      Al  8.61762e+00  9.94933e+00  4.15304e-03
      Al  1.43559e+01  9.94901e+00 -3.58861e-03
      Al  4.23786e+00  8.30450e-01  2.34549e+00
      Al  2.00948e+01  9.94338e+00  7.03604e+00
      Al  1.43361e+01  3.29734e+00  9.37176e+00
      Al  2.15163e+01  7.43603e+00  7.03453e+00
      Al  1.86608e+01  1.07615e+01  2.34507e+00
      Al  1.43551e+01  8.30485e+00  9.39514e+00
