62
# CELL(abcABC):   11.48341    11.48341    11.48341    60.00000    60.00000    60.00000  Step:          16  Bead:       0 positions{angstrom}  cell{angstrom}
      Si  8.61256e+00  7.92316e+00  2.85921e+00
      Mg  4.26705e+00  5.91663e+00  2.27491e+00
      Al  1.29581e+01  7.34327e+00  7.10126e+00
      Al  9.35712e-01  1.00860e+00  2.83052e+00
      Al  1.14834e+01  8.19348e+00  2.47693e+00
      Al  1.29581e+01  9.14289e+00  4.55622e+00
      Al  8.61256e+00  6.62995e+00  4.68808e+00
      Al  1.24191e+01  6.94398e+00 -7.40930e-03
      Al  1.43543e+01  7.92316e+00  2.85921e+00
      Al  5.74171e+00  3.11195e+00  2.20048e+00
      Al  9.35712e-01  3.00095e+00  7.40930e-03
      Al  8.61256e+00  4.97246e+00 -3.03741e-15
      Al  7.21637e+00  7.34327e+00  7.10126e+00
      Al  1.05477e+01  3.00095e+00  7.40930e-03
      Al  4.80599e+00  6.94398e+00 -7.40930e-03
      Al  8.61256e+00  9.85259e+00  6.96683e+00
      Al  2.87085e+00  3.40732e+00  2.40934e+00
      Al  2.87085e+00  1.65749e+00  4.68808e+00
      Al  1.14834e+01  1.01480e+01  7.17569e+00
      Al  6.67742e+00  2.30638e+00  6.54565e+00
      Al  1.29581e+01  5.91663e+00  2.27491e+00
      Al  1.00088e+01  5.91663e+00  2.27491e+00
      Al  1.43543e+01  6.62995e+00  4.68808e+00
      Al  1.05477e+01  6.94398e+00 -7.40930e-03
      Al  8.61256e+00  3.40732e+00  2.40934e+00
      Al  1.14834e+01  1.65749e+00  4.68808e+00
      Al  1.14834e+01  4.97246e+00 -1.27197e-16
      Al  7.21637e+00  5.91663e+00  2.27491e+00
      Al  1.00088e+01  7.34327e+00  7.10126e+00
      Al  6.67742e+00  6.94398e+00 -7.40930e-03
      Al  5.74171e+00  2.73188e-15  2.61429e-15
      Al  1.05477e+01  1.00860e+00  2.83052e+00
      Al  5.74171e+00  5.06643e+00  6.89924e+00
      Al  1.72251e+01  1.01480e+01  7.17569e+00
      Al  4.80599e+00  1.00860e+00  2.83052e+00
      Al  4.26705e+00  4.11702e+00  4.81995e+00
      Al  7.21637e+00  9.14289e+00  4.55622e+00
      Al  1.14834e+01  3.11195e+00  2.20048e+00
      Al  1.00088e+01  4.11702e+00  4.81995e+00
      Al  1.14834e+01  6.62995e+00  4.68808e+00
      Al  7.21637e+00  4.11702e+00  4.81995e+00
      Al  5.74171e+00  4.97246e+00  1.25084e-16
      Al  1.24191e+01  2.30638e+00  6.54565e+00
      Al  1.05477e+01  2.30638e+00  6.54565e+00
      Al  1.57505e+01  7.34327e+00  7.10126e+00
      Al  1.00088e+01  9.14289e+00  4.55622e+00
      Al  5.74171e+00  6.62995e+00  4.68808e+00
      Al  1.43543e+01  5.33674e+00  6.51696e+00
      Al  5.74171e+00  8.19348e+00  2.47693e+00
      Al  1.29581e+01  4.11702e+00  4.81995e+00
      Al  6.67742e+00  3.00095e+00  7.40930e-03
      Al  2.87085e+00  4.97246e+00 -1.95819e-15
      Al  8.61256e+00  1.65749e+00  4.68808e+00
      Al  4.80599e+00  3.00095e+00  7.40930e-03
      Al  1.14834e+01  5.06643e+00  6.89924e+00
      Al  6.67742e+00  1.00860e+00  2.83052e+00
      Al  5.74171e+00  1.65749e+00  4.68808e+00
      Al  1.43543e+01  9.85259e+00  6.96683e+00
      Al  4.80599e+00  2.30638e+00  6.54565e+00
      Al  8.61256e+00  5.33674e+00  6.51696e+00
      Al -3.32941e-16  1.04716e-15  3.53513e-16
      Al  1.57505e+01  9.14289e+00  4.55622e+00
