63
# CELL(abcABC):    1.49674     1.49674     1.49674    60.00000    60.00000    60.00000  Step:         146  Bead:       0 positions{angstrom}  cell{angstrom}
      Al  1.49761e+00  1.29592e+00  9.17184e-01
      Al  7.48938e-01  4.32306e-01  3.04847e-01
      Al  3.77260e-01 -5.70901e-03 -2.17484e-04
      Al  1.12245e+00  4.33286e-01  3.04765e-01
      Al  1.30907e+00  1.07639e-01  3.05270e-01
      Al  5.61566e-01  1.07878e-01  3.05475e-01
      Al  9.35410e-01  3.23581e-01  9.16648e-01
      Al  1.68404e+00  9.73029e-01  9.17228e-01
      Al  5.61733e-01  3.23564e-01  9.16989e-01
      Al  7.45224e-01 -5.30072e-03 -8.56221e-05
      Al  9.41351e-01  9.71658e-01 -3.32305e-04
      Al  1.68391e+00  3.24159e-01  9.16794e-01
      Al  1.12322e+00  8.64595e-01  6.09718e-01
      Al  9.35408e-01  7.56070e-01  3.05045e-01
      Al  5.61907e-01  5.40488e-01  6.10996e-01
      Al  9.34440e-01  1.07166e-01  3.04915e-01
      Al  3.73038e-01  6.49217e-01  1.39834e-04
      Al  1.49619e+00  2.15732e-01  6.12410e-01
      Al  9.36194e-01  5.40447e-01  6.11273e-01
      Al  9.35292e-01  3.24565e-01 -3.07655e-04
      Al  7.49009e-01  6.48504e-01  9.16810e-01
      Al  2.05757e+00  9.72335e-01  9.16705e-01
      Al  5.61752e-01  7.56411e-01  3.04883e-01
      Al  1.30932e+00  3.20296e-01  9.21780e-01
      Al  1.30936e+00  3.25377e-01 -4.41028e-04
      Al  1.49361e+00  1.07838e+00  3.00550e-01
      Al  1.87345e+00  1.29763e+00  9.21735e-01
      Al  1.49326e+00  6.53653e-01 -1.45082e-04
      Al  1.86970e+00  1.07966e+00  3.04922e-01
      Al  1.00041e-03 -9.69756e-04 -5.21887e-04
      Al  1.12146e+00  1.29647e+00  9.17611e-01
      Al  1.12560e+00  1.07812e+00  3.00284e-01
      Al  1.68365e+00  5.40755e-01  6.11475e-01
      Al  7.48940e-01  2.15465e-01  6.11428e-01
      Al  1.87873e-01  1.06922e-01  3.04702e-01
      Al  1.67766e+00  9.72143e-01 -4.31329e-05
      Al  1.49643e+00  8.64780e-01  6.09765e-01
      Al  1.12325e+00  6.46875e-01  9.17437e-01
      Al  1.30975e+00  9.72201e-01  9.16767e-01
      Al  9.35877e-01  1.18782e+00  6.11442e-01
      Al  1.68384e+00  7.56448e-01  3.05515e-01
      Al  7.48993e-01  8.64611e-01  6.11228e-01
      Al  1.12139e+00 -7.68775e-04 -3.54297e-04
      Al  7.49256e-01  6.48591e-01 -3.95238e-04
      Al  9.34716e-01  9.73437e-01  9.17437e-01
      Al  1.12239e+00  2.15777e-01  6.12452e-01
      Al  1.49639e+00  6.46990e-01  9.17621e-01
      Al  1.87072e+00  8.64830e-01  6.11514e-01
      Al  1.49621e+00  4.33273e-01  3.04695e-01
      Al  2.24168e+00  1.29784e+00  9.21815e-01
      Al  3.74599e-01  4.32335e-01  3.04866e-01
      Al  1.30936e+00  7.59773e-01  3.00313e-01
      Al  1.12502e+00  6.53433e-01 -2.96838e-04
      Al  5.61631e-01  9.71808e-01 -3.54914e-04
      Al  1.87496e-01  3.24340e-01 -5.50798e-04
      Al  1.87077e+00  6.48713e-01  9.17005e-01
      Al  5.61629e-01  3.22581e-01  5.30725e-05
      Al  3.74622e-01  2.15556e-01  6.11430e-01
      Al  1.68365e+00  1.18810e+00  6.11604e-01
      Al  2.05774e+00  1.18820e+00  6.12531e-01
      Al  7.49405e-01  1.07945e+00  3.04757e-01
      Al  1.30953e+00  5.40658e-01  6.11452e-01
      Al  1.31004e+00  1.18759e+00  6.09744e-01
